poscar file by

108 atoms

2 atom types

0.000000  -9.569999 xlo xhi
0.000000  -13.534022 ylo yhi
0.000000  28.534021 zlo zhi
-3.000000  -0.000002  -0.000000 xy xz yz

Masses

1	95.940002
2	183.839996

Atoms

1	1	6.434060 -6.477190 0.152260 
2	1	4.802470 -11.364600 28.492571 
3	1	2.031220 -10.801710 0.040720 
4	1	2.147300 -4.277440 2.283950 
5	1	5.010400 -7.515070 2.219740 
6	1	3.838280 -6.005660 4.532250 
7	1	2.495070 -7.017360 2.355330 
8	1	-0.767530 -10.267080 0.102460 
9	1	3.004270 -9.689730 2.365950 
10	1	7.994880 -8.090290 2.298930 
11	1	3.350500 -12.347840 2.185860 
12	1	4.083120 -8.652220 4.651220 
13	1	6.932300 -9.062440 9.050960 
14	1	4.667330 -11.412290 4.482840 
15	1	2.357330 -13.599250 8.950130 
16	1	-1.196270 -1.225360 2.280430 
17	1	7.235270 -11.870490 28.370760 
18	1	-5.119720 -8.387130 2.107320 
19	1	-6.594390 -6.805700 4.498330 
20	1	0.261330 -2.824520 4.445040 
21	1	-3.494800 -9.831690 4.457260 
22	1	0.834900 -5.602820 4.417130 
23	1	1.649060 -1.692190 6.919270 
24	1	-3.337440 -3.346260 2.270150 
25	1	-2.882870 -5.990360 2.348800 
26	1	-4.473830 -4.500380 4.394850 
27	1	-1.644940 -5.036380 4.675340 
28	1	0.017470 -6.579600 6.725560 
29	1	-2.753780 -6.016710 6.807730 
30	1	0.225400 -2.730070 8.986750 
31	1	-0.946720 -1.220660 11.299260 
32	1	7.280070 -11.802360 9.122340 
33	1	4.017470 -15.052080 6.869470 
34	1	-1.780730 -4.904730 9.132960 
35	1	3.588730 -6.010350 9.047440 
36	1	2.450270 -7.085490 6.603750 
37	1	3.209880 -3.305300 9.065940 
38	1	-0.334720 -13.172130 8.874330 
39	1	-1.809390 -11.590700 11.265340 
40	1	5.046330 -7.609520 11.212050 
41	1	1.290200 -14.616690 11.224270 
42	1	5.619900 -10.387820 11.184150 
43	1	1.447560 -8.131250 9.037160 
44	1	-1.434500 -7.562840 8.952870 
45	1	1.902130 -10.775360 9.115810 
46	1	0.311170 -9.285380 11.161850 
47	1	3.140060 -9.821370 11.442350 
48	1	2.240740 -4.337920 11.353880 
49	1	-0.701880 -3.867220 11.418230 
50	1	-2.561210 -8.738410 11.249750 
51	1	-3.594110 -9.812210 0.009030 
52	1	3.858650 -6.047470 28.506310 
53	1	-4.063340 -7.094170 28.482830 
54	1	1.416170 -8.018100 28.503170 
55	2	-2.427670 -8.814250 2.183120 
56	2	7.025730 -9.122920 4.586870 
57	2	2.223790 -13.523410 4.482740 
58	2	-0.117670 -6.627290 11.249850 
59	2	6.990480 -8.995100 28.502701 
60	2	4.080040 -8.617580 0.081650 
61	2	2.266750 -13.497980 28.469240 
62	2	0.512330 -2.706570 28.393850 
63	2	0.880690 -5.447540 0.147830 
64	2	-1.885730 -11.435950 2.199700 
65	2	-1.883360 -4.908710 0.050020 
66	2	-1.413760 -7.494100 28.477800 
67	2	-0.201040 -6.432870 2.316860 
68	2	0.646860 -12.109050 2.317410 
69	2	1.435270 -8.301690 4.607960 
70	2	0.394220 -9.218460 2.305130 
71	2	-0.843360 -10.304870 4.399960 
72	2	5.611180 -10.232720 2.338150 
73	2	-0.344500 -13.098920 4.465200 
74	2	5.297330 -7.491570 6.626840 
75	2	1.190890 -14.597210 6.776040 
76	2	5.665690 -10.232540 6.914840 
77	2	2.901640 -9.693710 6.817030 
78	2	1.885990 -10.912130 4.510300 
79	2	0.721660 -11.879170 6.715810 
80	2	3.371230 -12.279100 6.710790 
81	2	4.583960 -11.217870 9.083870 
82	2	9.473650 -9.534680 28.514009 
83	2	-0.635730 -3.995340 2.074280 
84	2	-2.218980 -2.266460 4.615240 
85	2	2.205480 -4.210100 6.735690 
86	2	-0.704960 -3.832580 6.848660 
87	2	4.924630 -14.110530 28.347839 
88	2	3.979440 -15.049050 2.231110 
89	2	-3.913070 -7.251110 4.469690 
90	2	-1.439040 -7.815370 4.556390 
91	2	-2.518250 -8.712990 6.702220 
92	2	-0.926350 -1.262470 6.739300 
93	2	2.899270 -16.220949 8.966710 
94	2	6.201160 -12.803100 6.736160 
95	2	-4.138130 -7.324050 9.084420 
96	2	-3.349720 -3.516700 11.374970 
97	2	-4.390770 -4.433460 9.072140 
98	2	3.941640 -15.089870 11.166970 
99	2	4.688650 -4.749680 6.747000 
100	2	0.826180 -5.447720 9.105160 
101	2	4.149270 -8.780340 8.841290 
102	2	2.566020 -7.051450 11.382250 
103	2	0.139630 -9.325530 6.580830 
104	2	-0.805560 -10.264050 8.998120 
105	2	0.871930 -12.036110 11.236700 
106	2	3.345960 -12.600370 11.323400 
107	2	-5.129500 -8.313920 11.232210 
108	2	-2.899010 -6.127130 11.277320 
