POSCAR file written by OVITO

153 atoms

2 atom types

0.000000  13.534024 xlo xhi
0.000000  13.523313 ylo yhi
0.000000  31.575727 zlo zhi
7.046324  0.000000  0.000000 xy xz yz

Masses

1	95.940002
2	183.839996

Atoms

1	1	11.262623 9.101722 0.846760 
2	1	17.889692 10.356568 1.759020 
3	1	18.097376 10.441324 4.582170 
4	1	18.020744 10.382597 7.252080 
5	1	18.193558 10.561578 10.113760 
6	1	4.486714 2.568720 1.726840 
7	1	6.963084 1.251040 1.019800 
8	1	15.948154 11.635059 2.645130 
9	1	6.939248 1.342205 3.613780 
10	1	9.115407 7.830869 2.734460 
11	1	11.052974 3.968307 2.834940 
12	1	11.429806 6.375322 4.585400 
13	1	9.046680 5.270101 3.769330 
14	1	4.553946 5.128004 0.888600 
15	1	15.693063 4.016724 2.747940 
16	1	4.659527 2.747701 4.588520 
17	1	4.495605 5.194790 6.372010 
18	1	9.095263 2.700418 4.661120 
19	1	13.555737 2.506794 1.916020 
20	1	8.911476 0.141274 5.457890 
21	1	13.721265 2.550522 4.601330 
22	1	11.310696 3.945745 5.663040 
23	1	11.320958 1.221068 6.413840 
24	1	8.926044 0.109791 8.273190 
25	1	11.262625 1.287851 11.897250 
26	1	8.989460 10.336111 1.709520 
27	1	8.798949 10.374362 4.675780 
28	1	11.339845 9.186878 3.554610 
29	1	8.867689 7.677259 5.553070 
30	1	4.603459 7.934426 5.540270 
31	1	6.963082 9.064912 6.545040 
32	1	9.181145 7.728124 8.170370 
33	1	6.939258 9.156083 9.139020 
34	1	9.095262 10.514289 10.186360 
35	1	13.473705 7.755304 8.375830 
36	1	11.122684 6.449634 7.284260 
37	1	13.555735 10.320665 7.441270 
38	1	15.756472 6.429174 7.234760 
39	1	15.924860 9.021689 9.143430 
40	1	15.565959 6.467425 10.201020 
41	1	11.330367 6.534389 10.107420 
42	1	8.911474 7.955145 10.983130 
43	1	11.370470 4.027489 11.065510 
44	1	11.253736 6.475662 12.777320 
45	1	13.730093 5.157974 12.070280 
46	1	13.706259 5.249150 14.664270 
47	1	13.721263 10.364394 10.126580 
48	1	18.196817 10.282267 15.635880 
49	1	15.813702 9.177043 14.819820 
50	1	11.320956 9.034939 11.939080 
51	1	8.926043 7.923662 13.798430 
52	1	11.426548 6.654643 15.639000 
53	1	15.862270 6.607352 15.711600 
54	1	20.240713 11.662239 2.850590 
55	1	2.390833 1.207822 3.618190 
56	1	11.386391 11.659689 5.667170 
57	1	2.348398 3.923934 8.259700 
58	1	4.285955 0.061375 8.360180 
59	1	4.662787 2.468390 10.110639 
60	1	2.279671 1.363166 9.294580 
61	1	4.543678 0.038812 11.188280 
62	1	9.115410 0.016998 13.784940 
63	1	4.572825 5.279945 9.079850 
64	1	15.634713 3.770330 11.078310 
65	1	4.619382 7.752755 11.192410 
66	1	2.414136 3.821190 13.695620 
67	1	17.819983 7.875242 13.885420 
68	1	6.706697 3.848370 13.901070 
69	1	4.355665 2.542701 12.809500 
70	1	6.788726 6.413731 12.966510 
71	1	8.989462 2.522239 12.760010 
72	1	9.157852 5.114755 14.668680 
73	1	8.798950 2.560490 15.726260 
74	1	11.339836 1.373009 14.605090 
75	1	4.563357 2.627455 15.632660 
76	1	6.954253 6.457459 15.651820 
77	2	13.471538 5.176495 1.046330 
78	2	15.847325 9.013135 1.040340 
79	2	13.505036 7.885718 2.618560 
80	2	15.800920 6.486917 1.842310 
81	2	15.768234 6.629133 4.513230 
82	2	13.439384 10.366853 1.973140 
83	2	13.459696 10.526848 4.532230 
84	2	15.577929 9.079522 3.598110 
85	2	15.842360 9.237631 6.340840 
86	2	11.400805 1.343959 0.792810 
87	2	9.028358 2.658826 1.919110 
88	2	2.308341 1.423761 0.815600 
89	2	11.366953 11.651087 2.682000 
90	2	6.737856 9.075763 0.781350 
91	2	6.794877 6.569911 1.985110 
92	2	9.161089 5.014708 0.870960 
93	2	11.349547 6.568808 1.709360 
94	2	17.999632 7.921905 2.813690 
95	2	4.434693 5.409667 3.590720 
96	2	6.786134 4.028808 2.670040 
97	2	6.811771 6.658382 4.600000 
98	2	6.704518 1.269563 6.571580 
99	2	9.080313 5.106191 6.565580 
100	2	6.906055 3.952365 5.484610 
101	2	6.738028 3.978784 8.143800 
102	2	11.226988 1.359278 3.795820 
103	2	13.554279 5.225499 3.608830 
104	2	13.504868 5.168827 6.306590 
105	2	13.561888 2.662974 7.510350 
106	2	11.232623 4.014970 8.338930 
107	2	9.033911 2.579983 7.367550 
108	2	9.001226 2.722198 10.038480 
109	2	11.201704 1.502730 9.115960 
110	2	13.578782 2.751446 10.125240 
111	2	6.676414 8.925392 3.584270 
112	2	11.400803 9.157830 6.318050 
113	2	9.028359 10.472708 7.444350 
114	2	4.599943 7.744153 8.207240 
115	2	6.672375 6.459918 7.498380 
116	2	6.692675 6.619906 10.057480 
117	2	6.704516 9.083434 12.096820 
118	2	13.446948 7.871115 5.533820 
119	2	11.226986 9.173150 9.321060 
120	2	13.443424 5.018456 9.109510 
121	2	13.615706 7.822273 11.124740 
122	2	15.795369 6.565771 12.969590 
123	2	8.810919 5.172588 9.123350 
124	2	9.075350 5.330696 11.866080 
125	2	11.366954 3.837216 13.732480 
126	2	13.439386 2.552982 13.023620 
127	2	13.459698 2.712976 15.582720 
128	2	13.561886 10.476845 13.035590 
129	2	15.928101 8.921653 11.921440 
130	2	18.116560 10.475752 12.759840 
131	2	9.033910 10.393854 12.892800 
132	2	9.001224 10.536070 15.563720 
133	2	11.201702 9.316602 14.641200 
134	2	13.553143 7.935743 13.720530 
135	2	13.578781 10.565318 15.650480 
136	2	0.081686 0.008394 5.599500 
137	2	15.800814 4.045547 5.480480 
138	2	2.394079 1.107773 6.396200 
139	2	4.582530 2.661875 7.234600 
140	2	13.553155 0.121868 8.195280 
141	2	2.313304 1.199257 12.090830 
142	2	0.139046 0.045430 11.009850 
143	2	13.505038 0.071847 13.669040 
144	2	6.787270 1.318564 9.134070 
145	2	6.737859 1.261892 11.831830 
146	2	9.033805 0.138612 11.005720 
147	2	4.465604 0.108038 13.864179 
148	2	4.633782 5.250888 11.843300 
149	2	6.679936 3.964171 11.059060 
150	2	4.459976 5.266215 14.846310 
151	2	6.676416 1.111521 14.634760 
152	2	2.043910 1.265653 14.648590 
153	2	6.787268 9.132436 14.659310 
